 #POSCAR written by GB_code
  
       39950  atoms
           1  atom types
 
      0.000000000000     255.448405740000  xlo xhi
      0.000000000000      57.120000000000  ylo yhi
      0.000000000000      31.931050720000  zlo zhi
 
Masses
 
            1   55.84500000             # Fe
 
Atoms # atomic
 
         1    1        0.638621010000       1.428000000000       1.915863040000
         2    1        0.000000000000       0.000000000000       0.000000000000
         3    1        1.915863040000       1.428000000000       5.747589130000
         4    1        1.277242030000       0.000000000000       3.831726090000
         5    1        3.193105070000       1.428000000000       3.193105070000
         6    1        2.554484060000       0.000000000000       1.277242030000
         7    1        4.470347100000       1.428000000000       0.638621010000
         8    1        3.831726090000       0.000000000000       5.108968110000
         9    1        5.747589130000       1.428000000000       4.470347100000
        10    1        5.108968110000       0.000000000000       2.554484060000
        11    1        0.638621010000       1.428000000000       8.302073190000
        12    1        0.000000000000       0.000000000000       6.386210140000
        13    1        1.915863040000       1.428000000000      12.133799270000
        14    1        1.277242030000       0.000000000000      10.217936230000
        15    1        3.193105070000       1.428000000000       9.579315220000
        16    1        2.554484060000       0.000000000000       7.663452170000
        17    1        4.470347100000       1.428000000000       7.024831160000
        18    1        3.831726090000       0.000000000000      11.495178260000
        19    1        5.747589130000       1.428000000000      10.856557240000
        20    1        5.108968110000       0.000000000000       8.940694200000
        21    1        0.638621010000       1.428000000000      14.688283330000
        22    1        0.000000000000       0.000000000000      12.772420290000
        23    1        1.915863040000       1.428000000000      18.520009420000
        24    1        1.277242030000       0.000000000000      16.604146370000
        25    1        3.193105070000       1.428000000000      15.965525360000
        26    1        2.554484060000       0.000000000000      14.049662320000
        27    1        4.470347100000       1.428000000000      13.411041300000
        28    1        3.831726090000       0.000000000000      17.881388400000
        29    1        5.747589130000       1.428000000000      17.242767390000
        30    1        5.108968110000       0.000000000000      15.326904340000
        31    1        0.638621010000       1.428000000000      21.074493470000
        32    1        0.000000000000       0.000000000000      19.158630430000
        33    1        1.915863040000       1.428000000000      24.906219560000
        34    1        1.277242030000       0.000000000000      22.990356520000
        35    1        3.193105070000       1.428000000000      22.351735500000
        36    1        2.554484060000       0.000000000000      20.435872460000
        37    1        4.470347100000       1.428000000000      19.797251450000
        38    1        3.831726090000       0.000000000000      24.267598550000
        39    1        5.747589130000       1.428000000000      23.628977530000
        40    1        5.108968110000       0.000000000000      21.713114490000
        41    1        0.638621010000       1.428000000000      27.460703620000
        42    1        0.000000000000       0.000000000000      25.544840570000
        43    1        1.915863040000       1.428000000000      31.292429700000
        44    1        1.277242030000       0.000000000000      29.376566660000
        45    1        3.193105070000       1.428000000000      28.737945650000
        46    1        2.554484060000       0.000000000000      26.822082600000
        47    1        4.470347100000       1.428000000000      26.183461590000
        48    1        3.831726090000       0.000000000000      30.653808690000
        49    1        5.747589130000       1.428000000000      30.015187680000
        50    1        5.108968110000       0.000000000000      28.099324630000
        51    1        0.638621010000       4.284000000000       1.915863040000
        52    1        0.000000000000       2.856000000000       0.000000000000
        53    1        1.915863040000       4.284000000000       5.747589130000
        54    1        1.277242030000       2.856000000000       3.831726090000
        55    1        3.193105070000       4.284000000000       3.193105070000
        56    1        2.554484060000       2.856000000000       1.277242030000
        57    1        4.470347100000       4.284000000000       0.638621010000
        58    1        3.831726090000       2.856000000000       5.108968110000
        59    1        5.747589130000       4.284000000000       4.470347100000
        60    1        5.108968110000       2.856000000000       2.554484060000
        61    1        0.638621010000       4.284000000000       8.302073190000
        62    1        0.000000000000       2.856000000000       6.386210140000
        63    1        1.915863040000       4.284000000000      12.133799270000
        64    1        1.277242030000       2.856000000000      10.217936230000
        65    1        3.193105070000       4.284000000000       9.579315220000
        66    1        2.554484060000       2.856000000000       7.663452170000
        67    1        4.470347100000       4.284000000000       7.024831160000
        68    1        3.831726090000       2.856000000000      11.495178260000
        69    1        5.747589130000       4.284000000000      10.856557240000
        70    1        5.108968110000       2.856000000000       8.940694200000
        71    1        0.638621010000       4.284000000000      14.688283330000
        72    1        0.000000000000       2.856000000000      12.772420290000
        73    1        1.915863040000       4.284000000000      18.520009420000
        74    1        1.277242030000       2.856000000000      16.604146370000
        75    1        3.193105070000       4.284000000000      15.965525360000
        76    1        2.554484060000       2.856000000000      14.049662320000
        77    1        4.470347100000       4.284000000000      13.411041300000
        78    1        3.831726090000       2.856000000000      17.881388400000
        79    1        5.747589130000       4.284000000000      17.242767390000
        80    1        5.108968110000       2.856000000000      15.326904340000
        81    1        0.638621010000       4.284000000000      21.074493470000
        82    1        0.000000000000       2.856000000000      19.158630430000
        83    1        1.915863040000       4.284000000000      24.906219560000
        84    1        1.277242030000       2.856000000000      22.990356520000
        85    1        3.193105070000       4.284000000000      22.351735500000
        86    1        2.554484060000       2.856000000000      20.435872460000
        87    1        4.470347100000       4.284000000000      19.797251450000
        88    1        3.831726090000       2.856000000000      24.267598550000
        89    1        5.747589130000       4.284000000000      23.628977530000
        90    1        5.108968110000       2.856000000000      21.713114490000
        91    1        0.638621010000       4.284000000000      27.460703620000
        92    1        0.000000000000       2.856000000000      25.544840570000
        93    1        1.915863040000       4.284000000000      31.292429700000
        94    1        1.277242030000       2.856000000000      29.376566660000
        95    1        3.193105070000       4.284000000000      28.737945650000
        96    1        2.554484060000       2.856000000000      26.822082600000
        97    1        4.470347100000       4.284000000000      26.183461590000
        98    1        3.831726090000       2.856000000000      30.653808690000
        99    1        5.747589130000       4.284000000000      30.015187680000
       100    1        5.108968110000       2.856000000000      28.099324630000
       101    1        0.638621010000       7.140000000000       1.915863040000
       102    1        0.000000000000       5.712000000000       0.000000000000
       103    1        1.915863040000       7.140000000000       5.747589130000
       104    1        1.277242030000       5.712000000000       3.831726090000
       105    1        3.193105070000       7.140000000000       3.193105070000
       106    1        2.554484060000       5.712000000000       1.277242030000
       107    1        4.470347100000       7.140000000000       0.638621010000
       108    1        3.831726090000       5.712000000000       5.108968110000
       109    1        5.747589130000       7.140000000000       4.470347100000
       110    1        5.108968110000       5.712000000000       2.554484060000
       111    1        0.638621010000       7.140000000000       8.302073190000
       112    1        0.000000000000       5.712000000000       6.386210140000
       113    1        1.915863040000       7.140000000000      12.133799270000
       114    1        1.277242030000       5.712000000000      10.217936230000
       115    1        3.193105070000       7.140000000000       9.579315220000
       116    1        2.554484060000       5.712000000000       7.663452170000
       117    1        4.470347100000       7.140000000000       7.024831160000
       118    1        3.831726090000       5.712000000000      11.495178260000
       119    1        5.747589130000       7.140000000000      10.856557240000
       120    1        5.108968110000       5.712000000000       8.940694200000
       121    1        0.638621010000       7.140000000000      14.688283330000
       122    1        0.000000000000       5.712000000000      12.772420290000
       123    1        1.915863040000       7.140000000000      18.520009420000
       124    1        1.277242030000       5.712000000000      16.604146370000
       125    1        3.193105070000       7.140000000000      15.965525360000
       126    1        2.554484060000       5.712000000000      14.049662320000
       127    1        4.470347100000       7.140000000000      13.411041300000
       128    1        3.831726090000       5.712000000000      17.881388400000
       129    1        5.747589130000       7.140000000000      17.242767390000
       130    1        5.108968110000       5.712000000000      15.326904340000
       131    1        0.638621010000       7.140000000000      21.074493470000
       132    1        0.000000000000       5.712000000000      19.158630430000
       133    1        1.915863040000       7.140000000000      24.906219560000
       134    1        1.277242030000       5.712000000000      22.990356520000
       135    1        3.193105070000       7.140000000000      22.351735500000
       136    1        2.554484060000       5.712000000000      20.435872460000
       137    1        4.470347100000       7.140000000000      19.797251450000
       138    1        3.831726090000       5.712000000000      24.267598550000
       139    1        5.747589130000       7.140000000000      23.628977530000
       140    1        5.108968110000       5.712000000000      21.713114490000
       141    1        0.638621010000       7.140000000000      27.460703620000
       142    1        0.000000000000       5.712000000000      25.544840570000
       143    1        1.915863040000       7.140000000000      31.292429700000
       144    1        1.277242030000       5.712000000000      29.376566660000
       145    1        3.193105070000       7.140000000000      28.737945650000
       146    1        2.554484060000       5.712000000000      26.822082600000
       147    1        4.470347100000       7.140000000000      26.183461590000
       148    1        3.831726090000       5.712000000000      30.653808690000
       149    1        5.747589130000       7.140000000000      30.015187680000
       150    1        5.108968110000       5.712000000000      28.099324630000
       151    1        0.638621010000       9.996000000000       1.915863040000
       152    1        0.000000000000       8.568000000000       0.000000000000
       153    1        1.915863040000       9.996000000000       5.747589130000
       154    1        1.277242030000       8.568000000000       3.831726090000
       155    1        3.193105070000       9.996000000000       3.193105070000
       156    1        2.554484060000       8.568000000000       1.277242030000
       157    1        4.470347100000       9.996000000000       0.638621010000
       158    1        3.831726090000       8.568000000000       5.108968110000
       159    1        5.747589130000       9.996000000000       4.470347100000
       160    1        5.108968110000       8.568000000000       2.554484060000
       161    1        0.638621010000       9.996000000000       8.302073190000
       162    1        0.000000000000       8.568000000000       6.386210140000
       163    1        1.915863040000       9.996000000000      12.133799270000
       164    1        1.277242030000       8.568000000000      10.217936230000
       165    1        3.193105070000       9.996000000000       9.579315220000
       166    1        2.554484060000       8.568000000000       7.663452170000
       167    1        4.470347100000       9.996000000000       7.024831160000
       168    1        3.831726090000       8.568000000000      11.495178260000
       169    1        5.747589130000       9.996000000000      10.856557240000
       170    1        5.108968110000       8.568000000000       8.940694200000
       171    1        0.638621010000       9.996000000000      14.688283330000
       172    1        0.000000000000       8.568000000000      12.772420290000
       173    1        1.915863040000       9.996000000000      18.520009420000
       174    1        1.277242030000       8.568000000000      16.604146370000
       175    1        3.193105070000       9.996000000000      15.965525360000
       176    1        2.554484060000       8.568000000000      14.049662320000
       177    1        4.470347100000       9.996000000000      13.411041300000
       178    1        3.831726090000       8.568000000000      17.881388400000
       179    1        5.747589130000       9.996000000000      17.242767390000
       180    1        5.108968110000       8.568000000000      15.326904340000
       181    1        0.638621010000       9.996000000000      21.074493470000
       182    1        0.000000000000       8.568000000000      19.158630430000
       183    1        1.915863040000       9.996000000000      24.906219560000
       184    1        1.277242030000       8.568000000000      22.990356520000
       185    1        3.193105070000       9.996000000000      22.351735500000
       186    1        2.554484060000       8.568000000000      20.435872460000
       187    1        4.470347100000       9.996000000000      19.797251450000
       188    1        3.831726090000       8.568000000000      24.267598550000
       189    1        5.747589130000       9.996000000000      23.628977530000
       190    1        5.108968110000       8.568000000000      21.713114490000
       191    1        0.638621010000       9.996000000000      27.460703620000
       192    1        0.000000000000       8.568000000000      25.544840570000
       193    1        1.915863040000       9.996000000000      31.292429700000
       194    1        1.277242030000       8.568000000000      29.376566660000
       195    1        3.193105070000       9.996000000000      28.737945650000
       196    1        2.554484060000       8.568000000000      26.822082600000
       197    1        4.470347100000       9.996000000000      26.183461590000
       198    1        3.831726090000       8.568000000000      30.653808690000
       199    1        5.747589130000       9.996000000000      30.015187680000
       200    1        5.108968110000       8.568000000000      28.099324630000
       201    1        0.638621010000      12.852000000000       1.915863040000
       202    1        0.000000000000      11.424000000000       0.000000000000
       203    1        1.915863040000      12.852000000000       5.747589130000
       204    1        1.277242030000      11.424000000000       3.831726090000
       205    1        3.193105070000      12.852000000000       3.193105070000
       206    1        2.554484060000      11.424000000000       1.277242030000
       207    1        4.470347100000      12.852000000000       0.638621010000
       208    1        3.831726090000      11.424000000000       5.108968110000
       209    1        5.747589130000      12.852000000000       4.470347100000
       210    1        5.108968110000      11.424000000000       2.554484060000
       211    1        0.638621010000      12.852000000000       8.302073190000
       212    1        0.000000000000      11.424000000000       6.386210140000
       213    1        1.915863040000      12.852000000000      12.133799270000
       214    1        1.277242030000      11.424000000000      10.217936230000
       215    1        3.193105070000      12.852000000000       9.579315220000
       216    1        2.554484060000      11.424000000000       7.663452170000
       217    1        4.470347100000      12.852000000000       7.024831160000
       218    1        3.831726090000      11.424000000000      11.495178260000
       219    1        5.747589130000      12.852000000000      10.856557240000
       220    1        5.108968110000      11.424000000000       8.940694200000
       221    1        0.638621010000      12.852000000000      14.688283330000
       222    1        0.000000000000      11.424000000000      12.772420290000
       223    1        1.915863040000      12.852000000000      18.520009420000
       224    1        1.277242030000      11.424000000000      16.604146370000
       225    1        3.193105070000      12.852000000000      15.965525360000
       226    1        2.554484060000      11.424000000000      14.049662320000
       227    1        4.470347100000      12.852000000000      13.411041300000
       228    1        3.831726090000      11.424000000000      17.881388400000
       229    1        5.747589130000      12.852000000000      17.242767390000
       230    1        5.108968110000      11.424000000000      15.326904340000
       231    1        0.638621010000      12.852000000000      21.074493470000
       232    1        0.000000000000      11.424000000000      19.158630430000
       233    1        1.915863040000      12.852000000000      24.906219560000
       234    1        1.277242030000      11.424000000000      22.990356520000
       235    1        3.193105070000      12.852000000000      22.351735500000
       236    1        2.554484060000      11.424000000000      20.435872460000
       237    1        4.470347100000      12.852000000000      19.797251450000
       238    1        3.831726090000      11.424000000000      24.267598550000
       239    1        5.747589130000      12.852000000000      23.628977530000
       240    1        5.108968110000      11.424000000000      21.713114490000
       241    1        0.638621010000      12.852000000000      27.460703620000
       242    1        0.000000000000      11.424000000000      25.544840570000
       243    1        1.915863040000      12.852000000000      31.292429700000
       244    1        1.277242030000      11.424000000000      29.376566660000
       245    1        3.193105070000      12.852000000000      28.737945650000
       246    1        2.554484060000      11.424000000000      26.822082600000
       247    1        4.470347100000      12.852000000000      26.183461590000
       248    1        3.831726090000      11.424000000000      30.653808690000
       249    1        5.747589130000      12.852000000000      30.015187680000
       250    1        5.108968110000      11.424000000000      28.099324630000
       251    1        0.638621010000      15.708000000000       1.915863040000
       252    1        0.000000000000      14.280000000000       0.000000000000
       253    1        1.915863040000      15.708000000000       5.747589130000
       254    1        1.277242030000      14.280000000000       3.831726090000
       255    1        3.193105070000      15.708000000000       3.193105070000
       256    1        2.554484060000      14.280000000000       1.277242030000
       257    1        4.470347100000      15.708000000000       0.638621010000
       258    1        3.831726090000      14.280000000000       5.108968110000
       259    1        5.747589130000      15.708000000000       4.470347100000
       260    1        5.108968110000      14.280000000000       2.554484060000
       261    1        0.638621010000      15.708000000000       8.302073190000
       262    1        0.000000000000      14.280000000000       6.386210140000
       263    1        1.915863040000      15.708000000000      12.133799270000
       264    1        1.277242030000      14.280000000000      10.217936230000
       265    1        3.193105070000      15.708000000000       9.579315220000
       266    1        2.554484060000      14.280000000000       7.663452170000
       267    1        4.470347100000      15.708000000000       7.024831160000
       268    1        3.831726090000      14.280000000000      11.495178260000
       269    1        5.747589130000      15.708000000000      10.856557240000
       270    1        5.108968110000      14.280000000000       8.940694200000
       271    1        0.638621010000      15.708000000000      14.688283330000
       272    1        0.000000000000      14.280000000000      12.772420290000
       273    1        1.915863040000      15.708000000000      18.520009420000
       274    1        1.277242030000      14.280000000000      16.604146370000
       275    1        3.193105070000      15.708000000000      15.965525360000
       276    1        2.554484060000      14.280000000000      14.049662320000
       277    1        4.470347100000      15.708000000000      13.411041300000
       278    1        3.831726090000      14.280000000000      17.881388400000
       279    1        5.747589130000      15.708000000000      17.242767390000
       280    1        5.108968110000      14.280000000000      15.326904340000
       281    1        0.638621010000      15.708000000000      21.074493470000
       282    1        0.000000000000      14.280000000000      19.158630430000
       283    1        1.915863040000      15.708000000000      24.906219560000
       284    1        1.277242030000      14.280000000000      22.990356520000
       285    1        3.193105070000      15.708000000000      22.351735500000
       286    1        2.554484060000      14.280000000000      20.435872460000
       287    1        4.470347100000      15.708000000000      19.797251450000
       288    1        3.831726090000      14.280000000000      24.267598550000
       289    1        5.747589130000      15.708000000000      23.628977530000
       290    1        5.108968110000      14.280000000000      21.713114490000
       291    1        0.638621010000      15.708000000000      27.460703620000
       292    1        0.000000000000      14.280000000000      25.544840570000
       293    1        1.915863040000      15.708000000000      31.292429700000
       294    1        1.277242030000      14.280000000000      29.376566660000
       295    1        3.193105070000      15.708000000000      28.737945650000
       296    1        2.554484060000      14.280000000000      26.822082600000
       297    1        4.470347100000      15.708000000000      26.183461590000
       298    1        3.831726090000      14.280000000000      30.653808690000
       299    1        5.747589130000      15.708000000000      30.015187680000
       300    1        5.108968110000      14.280000000000      28.099324630000
       301    1        0.638621010000      18.564000000000       1.915863040000
       302    1        0.000000000000      17.136000000000       0.000000000000
       303    1        1.915863040000      18.564000000000       5.747589130000
       304    1        1.277242030000      17.136000000000       3.831726090000
       305    1        3.193105070000      18.564000000000       3.193105070000
       306    1        2.554484060000      17.136000000000       1.277242030000
       307    1        4.470347100000      18.564000000000       0.638621010000
       308    1        3.831726090000      17.136000000000       5.108968110000
       309    1        5.747589130000      18.564000000000       4.470347100000
       310    1        5.108968110000      17.136000000000       2.554484060000
       311    1        0.638621010000      18.564000000000       8.302073190000
       312    1        0.000000000000      17.136000000000       6.386210140000
       313    1        1.915863040000      18.564000000000      12.133799270000
       314    1        1.277242030000      17.136000000000      10.217936230000
       315    1        3.193105070000      18.564000000000       9.579315220000
       316    1        2.554484060000      17.136000000000       7.663452170000
       317    1        4.470347100000      18.564000000000       7.024831160000
       318    1        3.831726090000      17.136000000000      11.495178260000
       319    1        5.747589130000      18.564000000000      10.856557240000
       320    1        5.108968110000      17.136000000000       8.940694200000
       321    1        0.638621010000      18.564000000000      14.688283330000
       322    1        0.000000000000      17.136000000000      12.772420290000
       323    1        1.915863040000      18.564000000000      18.520009420000
       324    1        1.277242030000      17.136000000000      16.604146370000
       325    1        3.193105070000      18.564000000000      15.965525360000
       326    1        2.554484060000      17.136000000000      14.049662320000
       327    1        4.470347100000      18.564000000000      13.411041300000
       328    1        3.831726090000      17.136000000000      17.881388400000
       329    1        5.747589130000      18.564000000000      17.242767390000
       330    1        5.108968110000      17.136000000000      15.326904340000
       331    1        0.638621010000      18.564000000000      21.074493470000
       332    1        0.000000000000      17.136000000000      19.158630430000
       333    1        1.915863040000      18.564000000000      24.906219560000
       334    1        1.277242030000      17.136000000000      22.990356520000
       335    1        3.193105070000      18.564000000000      22.351735500000
       336    1        2.554484060000      17.136000000000      20.435872460000
       337    1        4.470347100000      18.564000000000      19.797251450000
       338    1        3.831726090000      17.136000000000      24.267598550000
       339    1        5.747589130000      18.564000000000      23.628977530000
       340    1        5.108968110000      17.136000000000      21.713114490000
       341    1        0.638621010000      18.564000000000      27.460703620000
       342    1        0.000000000000      17.136000000000      25.544840570000
       343    1        1.915863040000      18.564000000000      31.292429700000
       344    1        1.277242030000      17.136000000000      29.376566660000
       345    1        3.193105070000      18.564000000000      28.737945650000
       346    1        2.554484060000      17.136000000000      26.822082600000
       347    1        4.470347100000      18.564000000000      26.183461590000
       348    1        3.831726090000      17.136000000000      30.653808690000
       349    1        5.747589130000      18.564000000000      30.015187680000
       350    1        5.108968110000      17.136000000000      28.099324630000
       351    1        0.638621010000      21.420000000000       1.915863040000
       352    1        0.000000000000      19.992000000000       0.000000000000
       353    1        1.915863040000      21.420000000000       5.747589130000
       354    1        1.277242030000      19.992000000000       3.831726090000
       355    1        3.193105070000      21.420000000000       3.193105070000
       356    1        2.554484060000      19.992000000000       1.277242030000
       357    1        4.470347100000      21.420000000000       0.638621010000
       358    1        3.831726090000      19.992000000000       5.108968110000
       359    1        5.747589130000      21.420000000000       4.470347100000
       360    1        5.108968110000      19.992000000000       2.554484060000
       361    1        0.638621010000      21.420000000000       8.302073190000
       362    1        0.000000000000      19.992000000000       6.386210140000
       363    1        1.915863040000      21.420000000000      12.133799270000
       364    1        1.277242030000      19.992000000000      10.217936230000
       365    1        3.193105070000      21.420000000000       9.579315220000
       366    1        2.554484060000      19.992000000000       7.663452170000
       367    1        4.470347100000      21.420000000000       7.024831160000
       368    1        3.831726090000      19.992000000000      11.495178260000
       369    1        5.747589130000      21.420000000000      10.856557240000
       370    1        5.108968110000      19.992000000000       8.940694200000
       371    1        0.638621010000      21.420000000000      14.688283330000